LAMMPS (11 Aug 2017)
Reading data file ...
  orthogonal box = (0 0 0) to (3.1 3.1 3.1)
  3 by 4 by 4 MPI processor grid
  reading atoms ...
  3 atoms
  scanning bonds ...
  2 = max bonds/atom
  scanning angles ...
  1 = max angles/atom
  reading bonds ...
  2 bonds
  reading angles ...
  1 angles
Finding 1-2 1-3 1-4 neighbors ...
  special bond factors lj:   0          0          0         
  special bond factors coul: 0          0          0         
  2 = max # of 1-2 neighbors
  1 = max # of 1-3 neighbors
  1 = max # of 1-4 neighbors
  2 = max # of special neighbors
Replicating atoms ...
  orthogonal box = (0 0 0) to (133.3 133.3 310)
  2 by 3 by 8 MPI processor grid
  554700 atoms
  369800 bonds
  184900 angles
Finding 1-2 1-3 1-4 neighbors ...
  special bond factors lj:   0          0          0         
  special bond factors coul: 0          0          0         
  2 = max # of 1-2 neighbors
  1 = max # of 1-3 neighbors
  1 = max # of 1-4 neighbors
  2 = max # of special neighbors
369800 atoms in group hydrogen
184900 atoms in group oxygen
Finding SHAKE clusters ...
  0 = # of size 2 clusters
  0 = # of size 3 clusters
  0 = # of size 4 clusters
  184900 = # of frozen angles
PPPM initialization ...
WARNING: Using 12-bit tables for long-range coulomb (../kspace.cpp:321)
  G vector (1/distance) = 0.300777
  grid = 120 120 216
  stencil order = 5
  estimated absolute RMS force accuracy = 0.00373211
  estimated relative force accuracy = 1.12391e-05
  using double precision FFTs
  3d grid and FFT values/proc = 107066 72000
Neighbor list info ...
  update every 1 steps, delay 0 steps, check yes
  max neighbors/atom: 2000, page size: 100000
  master list distance cutoff = 12
  ghost atom cutoff = 12
  binsize = 6, bins = 23 23 52
  1 neighbor lists, perpetual/occasional/extra = 1 0 0
  (1) pair lj/cut/coul/long, perpetual
      attributes: half, newton on
      pair build: half/bin/newton
      stencil: half/bin/3d/newton
      bin: standard
Setting up Verlet run ...
  Unit style    : real
  Current step  : 0
  Time step     : 5
Per MPI rank memory allocation (min/avg/max) = 52.45 | 53.7 | 54.66 Mbytes
Step f_TempAve f_PressAve f_DensAve f_PEAve_Mol 
       0            0            0            0            0 
ERROR: Non-numeric pressure - simulation unstable (../fix_nh.cpp:1029)
Last command: run ${N_room}
======================================================================================

			Resource Usage on 2018-09-26 21:03:51.636258:

	JobId: 7651284.wlm01  
	Project: personal-e0020415 
	Exit Status: 1
	NCPUs Requested: 48				NCPUs Used: 48
							CPU Time Used: 00:02:33
	Memory Requested: 192gb 				Memory Used: 2480kb
							Vmem Used: 26384kb
	Walltime requested: 24:00:00 			Walltime Used: 00:00:08
	
	Execution Nodes Used: (std1655:ncpus=24:mem=100663296kb)+(std1656:ncpus=24:mem=100663296kb)
	
 ======================================================================================
